{
    "role_1": "Physicist_RoleType.ASSISTANT",
    "topic;": "Atomic physics",
    "sub_topic": "Calculation of the ionization energy of atoms",
    "message_1": "What is the ionization energy of a helium atom in its ground state, and how does this value compare to the ionization energy of a hydrogen atom in its ground state? Use the Rydberg formula and relevant constants to calculate the ionization energy for each atom.",
    "message_2": "The ionization energy of an atom is the energy required to remove an electron from its ground state. The Rydberg formula can be used to calculate the ionization energy of hydrogen and helium atoms.\n\nThe Rydberg formula is given by:\n\nE = -R_H * Z^2 / n^2\n\nwhere E is the ionization energy, R_H is the Rydberg constant for hydrogen (approximately 13.6 eV), Z is the atomic number (number of protons in the nucleus), and n is the principal quantum number (energy level of the electron).\n\nFor a hydrogen atom in its ground state (n = 1), the atomic number Z = 1. Plugging these values into the Rydberg formula, we get:\n\nE_H = -13.6 eV * (1^2) / (1^2) = -13.6 eV\n\nThe ionization energy is negative because energy is required to remove the electron. Therefore, the ionization energy of a hydrogen atom in its ground state is 13.6 eV.\n\nFor a helium atom in its ground state (n = 1), the atomic number Z = 2. Plugging these values into the Rydberg formula, we get:\n\nE_He = -13.6 eV * (2^2) / (1^2) = -54.4 eV\n\nThe ionization energy of a helium atom in its ground state is 54.4 eV.\n\nComparing the ionization energies of hydrogen and helium atoms in their ground states, we find that the ionization energy of helium is about 4 times greater than that of hydrogen. This is because the helium nucleus has two protons, which exert a stronger electrostatic force on the electrons, making it more difficult to remove an electron from a helium atom compared to a hydrogen atom."
}